<?xml version="1.0" encoding="UTF-8"?>

<!-- generated on 2023-04-01 13:51:34 by Eclipse SUMO sumo Version 1.16.0
<configuration xmlns:xsi="http://www.w3.org/2001/XMLSchema-instance" xsi:noNamespaceSchemaLocation="http://sumo.dlr.de/xsd/sumoConfiguration.xsd">

    <input>
        <net-file value="data/single_intersection.net.xml"/>
        <route-files value="data/cross_9_1_30mins.rou.xml"/>
    </input>

    <output>
        <tripinfo-output value="tripinfo.xml"/>
    </output>

    <time>
        <begin value="0"/>
    </time>

    <processing>
        <lateral-resolution value="0.64"/>
        <waiting-time-memory value="60"/>
    </processing>

    <report>
        <verbose value="true"/>
        <no-step-log value="true"/>
    </report>

    <gui_only>
        <start value="true"/>
    </gui_only>

</configuration>
-->

<tripinfos xmlns:xsi="http://www.w3.org/2001/XMLSchema-instance" xsi:noNamespaceSchemaLocation="http://sumo.dlr.de/xsd/tripinfo_file.xsd">
    <tripinfo id="10" depart="15.00" departLane="54o_0" departPos="5.10" departPosLat="0.00" departSpeed="0.00" departDelay="0.00" arrival="53.00" arrivalLane="51i_2" arrivalPos="10.00" arrivalPosLat="0.00" arrivalSpeed="12.48" duration="38.00" routeLength="233.37" waitingTime="9.00" waitingCount="1" stopTime="0.00" timeLoss="23.19" rerouteNo="0" devices="tripinfo_10" vType="type3" speedFactor="1.09" vaporized=""/>
    <tripinfo id="20" depart="25.00" departLane="54o_0" departPos="5.10" departPosLat="0.00" departSpeed="0.00" departDelay="0.00" arrival="56.00" arrivalLane="51i_2" arrivalPos="10.00" arrivalPosLat="0.00" arrivalSpeed="11.89" duration="31.00" routeLength="233.37" waitingTime="3.00" waitingCount="1" stopTime="0.00" timeLoss="14.35" rerouteNo="0" devices="tripinfo_20" vType="type4" speedFactor="1.02" vaporized=""/>
    <tripinfo id="30" depart="35.00" departLane="54o_0" departPos="7.20" departPosLat="0.00" departSpeed="0.00" departDelay="0.00" arrival="60.00" arrivalLane="51i_2" arrivalPos="10.00" arrivalPosLat="0.00" arrivalSpeed="12.49" duration="25.00" routeLength="231.27" waitingTime="0.00" waitingCount="0" stopTime="0.00" timeLoss="9.95" rerouteNo="0" devices="tripinfo_30" vType="type5" speedFactor="1.09" vaporized=""/>
    <tripinfo id="40" depart="45.00" departLane="54o_0" departPos="10.00" departPosLat="0.00" departSpeed="0.00" departDelay="0.00" arrival="72.00" arrivalLane="51i_2" arrivalPos="10.00" arrivalPosLat="0.00" arrivalSpeed="11.79" duration="27.00" routeLength="228.47" waitingTime="0.00" waitingCount="0" stopTime="0.00" timeLoss="10.63" rerouteNo="0" devices="tripinfo_40" vType="type6" speedFactor="1.00" vaporized=""/>
    <tripinfo id="0" depart="5.00" departLane="51o_0" departPos="2.30" departPosLat="0.00" departSpeed="0.00" departDelay="0.00" arrival="83.00" arrivalLane="54i_0" arrivalPos="10.00" arrivalPosLat="0.00" arrivalSpeed="15.56" duration="78.00" routeLength="220.20" waitingTime="55.00" waitingCount="1" stopTime="0.00" timeLoss="63.25" rerouteNo="0" devices="tripinfo_0" vType="type2" speedFactor="1.06" vaporized=""/>
    <tripinfo id="1" depart="6.00" departLane="51o_0" departPos="2.30" departPosLat="0.00" departSpeed="0.00" departDelay="1.00" arrival="86.00" arrivalLane="54i_0" arrivalPos="10.00" arrivalPosLat="0.00" arrivalSpeed="15.82" duration="80.00" routeLength="220.20" waitingTime="56.00" waitingCount="2" stopTime="0.00" timeLoss="63.14" rerouteNo="0" devices="tripinfo_1" vType="type2" speedFactor="0.94" vaporized=""/>
    <tripinfo id="2" depart="8.00" departLane="51o_0" departPos="2.30" departPosLat="0.00" departSpeed="0.00" departDelay="3.00" arrival="88.00" arrivalLane="54i_0" arrivalPos="10.00" arrivalPosLat="0.00" arrivalSpeed="14.88" duration="80.00" routeLength="220.20" waitingTime="54.00" waitingCount="1" stopTime="0.00" timeLoss="64.32" rerouteNo="0" devices="tripinfo_2" vType="type2" speedFactor="1.01" vaporized=""/>
    <tripinfo id="3" depart="10.00" departLane="51o_0" departPos="2.30" departPosLat="0.00" departSpeed="0.00" departDelay="5.00" arrival="90.00" arrivalLane="54i_0" arrivalPos="10.00" arrivalPosLat="0.00" arrivalSpeed="14.57" duration="80.00" routeLength="220.20" waitingTime="54.00" waitingCount="1" stopTime="0.00" timeLoss="65.02" rerouteNo="0" devices="tripinfo_3" vType="type2" speedFactor="1.08" vaporized=""/>
    <tripinfo id="4" depart="12.00" departLane="51o_0" departPos="2.30" departPosLat="0.00" departSpeed="0.00" departDelay="7.00" arrival="91.00" arrivalLane="54i_0" arrivalPos="10.00" arrivalPosLat="0.00" arrivalSpeed="14.08" duration="79.00" routeLength="220.20" waitingTime="52.00" waitingCount="1" stopTime="0.00" timeLoss="63.75" rerouteNo="0" devices="tripinfo_4" vType="type2" speedFactor="1.03" vaporized=""/>
    <tripinfo id="60" depart="65.00" departLane="54o_0" departPos="2.30" departPosLat="0.00" departSpeed="0.00" departDelay="0.00" arrival="144.00" arrivalLane="51i_2" arrivalPos="10.00" arrivalPosLat="0.00" arrivalSpeed="13.19" duration="79.00" routeLength="236.17" waitingTime="50.00" waitingCount="1" stopTime="0.00" timeLoss="59.97" rerouteNo="0" devices="tripinfo_60" vType="type2" speedFactor="0.85" vaporized=""/>
    <tripinfo id="70" depart="75.00" departLane="54o_0" departPos="5.10" departPosLat="0.00" departSpeed="0.00" departDelay="0.00" arrival="146.00" arrivalLane="51i_2" arrivalPos="10.00" arrivalPosLat="0.00" arrivalSpeed="11.54" duration="71.00" routeLength="233.37" waitingTime="40.00" waitingCount="1" stopTime="0.00" timeLoss="55.82" rerouteNo="0" devices="tripinfo_70" vType="type3" speedFactor="1.08" vaporized=""/>
    <tripinfo id="80" depart="85.00" departLane="54o_0" departPos="5.10" departPosLat="0.00" departSpeed="0.00" departDelay="0.00" arrival="148.00" arrivalLane="51i_2" arrivalPos="10.00" arrivalPosLat="0.00" arrivalSpeed="13.12" duration="63.00" routeLength="233.37" waitingTime="33.00" waitingCount="1" stopTime="0.00" timeLoss="47.08" rerouteNo="0" devices="tripinfo_80" vType="type4" speedFactor="1.02" vaporized=""/>
    <tripinfo id="5" depart="14.00" departLane="51o_0" departPos="2.30" departPosLat="0.00" departSpeed="0.00" departDelay="4.00" arrival="151.00" arrivalLane="54i_0" arrivalPos="10.00" arrivalPosLat="0.00" arrivalSpeed="11.80" duration="137.00" routeLength="220.20" waitingTime="103.00" waitingCount="2" stopTime="0.00" timeLoss="117.80" rerouteNo="0" devices="tripinfo_5" vType="type2" speedFactor="0.83" vaporized=""/>
    <tripinfo id="6" depart="16.00" departLane="51o_0" departPos="2.30" departPosLat="0.00" departSpeed="0.00" departDelay="6.00" arrival="152.00" arrivalLane="54i_0" arrivalPos="10.00" arrivalPosLat="0.00" arrivalSpeed="11.87" duration="136.00" routeLength="220.20" waitingTime="100.00" waitingCount="2" stopTime="0.00" timeLoss="121.34" rerouteNo="0" devices="tripinfo_6" vType="type2" speedFactor="1.05" vaporized=""/>
    <tripinfo id="7" depart="18.00" departLane="51o_0" departPos="2.30" departPosLat="0.00" departSpeed="0.00" departDelay="8.00" arrival="154.00" arrivalLane="54i_0" arrivalPos="10.00" arrivalPosLat="0.00" arrivalSpeed="11.55" duration="136.00" routeLength="220.20" waitingTime="98.00" waitingCount="2" stopTime="0.00" timeLoss="118.35" rerouteNo="0" devices="tripinfo_7" vType="type2" speedFactor="0.89" vaporized=""/>
    <tripinfo id="50" depart="55.00" departLane="54o_0" departPos="1.70" departPosLat="0.00" departSpeed="0.00" departDelay="0.00" arrival="154.00" arrivalLane="51i_0" arrivalPos="10.00" arrivalPosLat="-1.27" arrivalSpeed="5.19" duration="99.00" routeLength="236.77" waitingTime="49.00" waitingCount="1" stopTime="0.00" timeLoss="56.99" rerouteNo="0" devices="tripinfo_50" vType="type1" speedFactor="1.03" vaporized=""/>
    <tripinfo id="8" depart="20.00" departLane="51o_0" departPos="2.30" departPosLat="0.00" departSpeed="0.00" departDelay="10.00" arrival="156.00" arrivalLane="54i_0" arrivalPos="10.00" arrivalPosLat="0.00" arrivalSpeed="10.58" duration="136.00" routeLength="220.20" waitingTime="97.00" waitingCount="2" stopTime="0.00" timeLoss="119.22" rerouteNo="0" devices="tripinfo_8" vType="type2" speedFactor="0.94" vaporized=""/>
    <tripinfo id="9" depart="21.00" departLane="51o_0" departPos="2.30" departPosLat="0.00" departSpeed="0.00" departDelay="11.00" arrival="158.00" arrivalLane="54i_0" arrivalPos="10.00" arrivalPosLat="0.00" arrivalSpeed="12.95" duration="137.00" routeLength="220.20" waitingTime="96.00" waitingCount="2" stopTime="0.00" timeLoss="118.89" rerouteNo="0" devices="tripinfo_9" vType="type2" speedFactor="0.86" vaporized=""/>
    <tripinfo id="11" depart="24.00" departLane="51o_0" departPos="5.10" departPosLat="0.00" departSpeed="0.00" departDelay="9.00" arrival="160.00" arrivalLane="54i_0" arrivalPos="10.00" arrivalPosLat="0.00" arrivalSpeed="10.61" duration="136.00" routeLength="217.40" waitingTime="96.00" waitingCount="2" stopTime="0.00" timeLoss="121.32" rerouteNo="0" devices="tripinfo_11" vType="type3" speedFactor="1.03" vaporized=""/>
    <tripinfo id="12" depart="27.00" departLane="51o_0" departPos="5.10" departPosLat="0.00" departSpeed="0.00" departDelay="12.00" arrival="162.00" arrivalLane="54i_0" arrivalPos="10.00" arrivalPosLat="0.00" arrivalSpeed="12.75" duration="135.00" routeLength="217.40" waitingTime="94.00" waitingCount="2" stopTime="0.00" timeLoss="120.33" rerouteNo="0" devices="tripinfo_12" vType="type3" speedFactor="1.05" vaporized=""/>
    <tripinfo id="13" depart="30.00" departLane="51o_0" departPos="5.10" departPosLat="0.00" departSpeed="0.00" departDelay="15.00" arrival="164.00" arrivalLane="54i_0" arrivalPos="10.00" arrivalPosLat="0.00" arrivalSpeed="13.47" duration="134.00" routeLength="217.40" waitingTime="93.00" waitingCount="2" stopTime="0.00" timeLoss="120.09" rerouteNo="0" devices="tripinfo_13" vType="type3" speedFactor="1.12" vaporized=""/>
    <tripinfo id="14" depart="33.00" departLane="51o_0" departPos="5.10" departPosLat="0.00" departSpeed="0.00" departDelay="18.00" arrival="166.00" arrivalLane="54i_0" arrivalPos="10.00" arrivalPosLat="0.00" arrivalSpeed="13.10" duration="133.00" routeLength="217.40" waitingTime="92.00" waitingCount="2" stopTime="0.00" timeLoss="117.31" rerouteNo="0" devices="tripinfo_14" vType="type3" speedFactor="0.99" vaporized=""/>
    <tripinfo id="15" depart="36.00" departLane="51o_0" departPos="5.10" departPosLat="0.00" departSpeed="0.00" departDelay="16.00" arrival="168.00" arrivalLane="54i_0" arrivalPos="10.00" arrivalPosLat="0.00" arrivalSpeed="12.16" duration="132.00" routeLength="217.40" waitingTime="90.00" waitingCount="2" stopTime="0.00" timeLoss="115.55" rerouteNo="0" devices="tripinfo_15" vType="type3" speedFactor="0.93" vaporized=""/>
    <tripinfo id="16" depart="39.00" departLane="51o_0" departPos="5.10" departPosLat="0.00" departSpeed="0.00" departDelay="19.00" arrival="170.00" arrivalLane="54i_0" arrivalPos="10.00" arrivalPosLat="0.00" arrivalSpeed="10.78" duration="131.00" routeLength="217.40" waitingTime="88.00" waitingCount="3" stopTime="0.00" timeLoss="113.71" rerouteNo="0" devices="tripinfo_16" vType="type3" speedFactor="0.88" vaporized=""/>
    <tripinfo id="17" depart="42.00" departLane="51o_0" departPos="5.10" departPosLat="0.00" departSpeed="0.00" departDelay="22.00" arrival="172.00" arrivalLane="54i_0" arrivalPos="10.00" arrivalPosLat="0.00" arrivalSpeed="12.28" duration="130.00" routeLength="217.40" waitingTime="87.00" waitingCount="2" stopTime="0.00" timeLoss="113.65" rerouteNo="0" devices="tripinfo_17" vType="type3" speedFactor="0.94" vaporized=""/>
    <tripinfo id="18" depart="45.00" departLane="51o_0" departPos="5.10" departPosLat="0.00" departSpeed="0.00" departDelay="25.00" arrival="174.00" arrivalLane="54i_0" arrivalPos="10.00" arrivalPosLat="0.00" arrivalSpeed="11.03" duration="129.00" routeLength="217.40" waitingTime="87.00" waitingCount="2" stopTime="0.00" timeLoss="112.53" rerouteNo="0" devices="tripinfo_18" vType="type3" speedFactor="0.94" vaporized=""/>
    <tripinfo id="19" depart="93.00" departLane="51o_0" departPos="5.10" departPosLat="0.00" departSpeed="0.00" departDelay="73.00" arrival="176.00" arrivalLane="54i_0" arrivalPos="10.00" arrivalPosLat="0.00" arrivalSpeed="13.11" duration="83.00" routeLength="217.40" waitingTime="45.00" waitingCount="1" stopTime="0.00" timeLoss="69.68" rerouteNo="0" devices="tripinfo_19" vType="type3" speedFactor="1.16" vaporized=""/>
    <tripinfo id="21" depart="96.00" departLane="51o_0" departPos="5.10" departPosLat="0.00" departSpeed="0.00" departDelay="71.00" arrival="178.00" arrivalLane="54i_0" arrivalPos="10.00" arrivalPosLat="0.00" arrivalSpeed="12.19" duration="82.00" routeLength="217.40" waitingTime="45.00" waitingCount="1" stopTime="0.00" timeLoss="66.61" rerouteNo="0" devices="tripinfo_21" vType="type4" speedFactor="1.01" vaporized=""/>
    <tripinfo id="22" depart="99.00" departLane="51o_0" departPos="5.10" departPosLat="0.00" departSpeed="0.00" departDelay="74.00" arrival="180.00" arrivalLane="54i_0" arrivalPos="10.00" arrivalPosLat="0.00" arrivalSpeed="12.28" duration="81.00" routeLength="217.40" waitingTime="47.00" waitingCount="1" stopTime="0.00" timeLoss="65.03" rerouteNo="0" devices="tripinfo_22" vType="type4" speedFactor="0.97" vaporized=""/>
    <tripinfo id="23" depart="154.00" departLane="51o_0" departPos="5.10" departPosLat="0.00" departSpeed="0.00" departDelay="129.00" arrival="182.00" arrivalLane="54i_0" arrivalPos="10.00" arrivalPosLat="0.00" arrivalSpeed="11.13" duration="28.00" routeLength="217.40" waitingTime="0.00" waitingCount="0" stopTime="0.00" timeLoss="10.76" rerouteNo="0" devices="tripinfo_23" vType="type4" speedFactor="0.89" vaporized=""/>
    <tripinfo id="24" depart="157.00" departLane="51o_0" departPos="5.10" departPosLat="0.00" departSpeed="0.00" departDelay="132.00" arrival="185.00" arrivalLane="54i_0" arrivalPos="10.00" arrivalPosLat="0.00" arrivalSpeed="10.58" duration="28.00" routeLength="217.40" waitingTime="0.00" waitingCount="0" stopTime="0.00" timeLoss="9.25" rerouteNo="0" devices="tripinfo_24" vType="type4" speedFactor="0.83" vaporized=""/>
    <tripinfo id="25" depart="160.00" departLane="51o_0" departPos="5.10" departPosLat="0.00" departSpeed="0.00" departDelay="130.00" arrival="187.00" arrivalLane="54i_0" arrivalPos="10.00" arrivalPosLat="0.00" arrivalSpeed="11.36" duration="27.00" routeLength="217.40" waitingTime="0.00" waitingCount="0" stopTime="0.00" timeLoss="9.17" rerouteNo="0" devices="tripinfo_25" vType="type4" speedFactor="0.87" vaporized=""/>
    <tripinfo id="120" depart="125.00" departLane="54o_0" departPos="2.30" departPosLat="0.00" departSpeed="0.00" departDelay="0.00" arrival="221.00" arrivalLane="51i_2" arrivalPos="10.00" arrivalPosLat="0.00" arrivalSpeed="15.74" duration="96.00" routeLength="236.17" waitingTime="72.00" waitingCount="1" stopTime="0.00" timeLoss="79.85" rerouteNo="0" devices="tripinfo_120" vType="type2" speedFactor="1.06" vaporized=""/>
    <tripinfo id="90" depart="95.00" departLane="54o_0" departPos="7.20" departPosLat="0.00" departSpeed="0.00" departDelay="0.00" arrival="226.00" arrivalLane="51i_2" arrivalPos="10.00" arrivalPosLat="0.00" arrivalSpeed="11.87" duration="131.00" routeLength="231.27" waitingTime="90.00" waitingCount="2" stopTime="0.00" timeLoss="114.95" rerouteNo="0" devices="tripinfo_90" vType="type5" speedFactor="1.02" vaporized=""/>
    <tripinfo id="180" depart="185.00" departLane="54o_0" departPos="2.30" departPosLat="0.00" departSpeed="0.00" departDelay="0.00" arrival="230.00" arrivalLane="51i_2" arrivalPos="10.00" arrivalPosLat="0.00" arrivalSpeed="15.32" duration="45.00" routeLength="236.17" waitingTime="17.00" waitingCount="1" stopTime="0.00" timeLoss="27.36" rerouteNo="0" devices="tripinfo_180" vType="type2" speedFactor="0.96" vaporized=""/>
    <tripinfo id="100" depart="105.00" departLane="54o_0" departPos="10.00" departPosLat="0.00" departSpeed="0.00" departDelay="0.00" arrival="232.00" arrivalLane="51i_2" arrivalPos="10.00" arrivalPosLat="0.00" arrivalSpeed="12.00" duration="127.00" routeLength="228.47" waitingTime="81.00" waitingCount="3" stopTime="0.00" timeLoss="110.85" rerouteNo="0" devices="tripinfo_100" vType="type6" speedFactor="1.00" vaporized=""/>
    <tripinfo id="130" depart="135.00" departLane="54o_0" departPos="5.10" departPosLat="0.00" departSpeed="0.00" departDelay="0.00" arrival="235.00" arrivalLane="51i_2" arrivalPos="10.00" arrivalPosLat="0.00" arrivalSpeed="11.40" duration="100.00" routeLength="233.37" waitingTime="64.00" waitingCount="1" stopTime="0.00" timeLoss="82.56" rerouteNo="0" devices="tripinfo_130" vType="type3" speedFactor="0.93" vaporized=""/>
    <tripinfo id="140" depart="145.00" departLane="54o_0" departPos="5.10" departPosLat="0.00" departSpeed="0.00" departDelay="0.00" arrival="237.00" arrivalLane="51i_2" arrivalPos="10.00" arrivalPosLat="0.70" arrivalSpeed="12.06" duration="92.00" routeLength="233.37" waitingTime="55.00" waitingCount="1" stopTime="0.00" timeLoss="74.80" rerouteNo="0" devices="tripinfo_140" vType="type4" speedFactor="0.94" vaporized=""/>
    <tripinfo id="150" depart="155.00" departLane="54o_0" departPos="7.20" departPosLat="0.00" departSpeed="0.00" departDelay="0.00" arrival="241.00" arrivalLane="51i_2" arrivalPos="10.00" arrivalPosLat="0.00" arrivalSpeed="12.21" duration="86.00" routeLength="231.27" waitingTime="45.00" waitingCount="1" stopTime="0.00" timeLoss="70.08" rerouteNo="0" devices="tripinfo_150" vType="type5" speedFactor="1.02" vaporized=""/>
    <tripinfo id="160" depart="165.00" departLane="54o_0" departPos="10.00" departPosLat="0.00" departSpeed="0.00" departDelay="0.00" arrival="243.00" arrivalLane="51i_2" arrivalPos="10.00" arrivalPosLat="0.00" arrivalSpeed="11.89" duration="78.00" routeLength="228.47" waitingTime="36.00" waitingCount="1" stopTime="0.00" timeLoss="61.96" rerouteNo="0" devices="tripinfo_160" vType="type6" speedFactor="1.00" vaporized=""/>
    <tripinfo id="26" depart="163.00" departLane="51o_0" departPos="5.10" departPosLat="0.00" departSpeed="0.00" departDelay="133.00" arrival="246.00" arrivalLane="54i_0" arrivalPos="10.00" arrivalPosLat="0.00" arrivalSpeed="11.38" duration="83.00" routeLength="217.40" waitingTime="55.00" waitingCount="1" stopTime="0.00" timeLoss="65.76" rerouteNo="0" devices="tripinfo_26" vType="type4" speedFactor="0.92" vaporized=""/>
    <tripinfo id="110" depart="115.00" departLane="54o_0" departPos="1.70" departPosLat="0.00" departSpeed="0.00" departDelay="0.00" arrival="246.00" arrivalLane="51i_0" arrivalPos="10.00" arrivalPosLat="-1.27" arrivalSpeed="5.57" duration="131.00" routeLength="236.77" waitingTime="67.00" waitingCount="2" stopTime="0.00" timeLoss="89.00" rerouteNo="0" devices="tripinfo_110" vType="type1" speedFactor="1.02" vaporized=""/>
    <tripinfo id="27" depart="166.00" departLane="51o_0" departPos="5.10" departPosLat="0.00" departSpeed="0.00" departDelay="136.00" arrival="248.00" arrivalLane="54i_0" arrivalPos="10.00" arrivalPosLat="0.00" arrivalSpeed="12.03" duration="82.00" routeLength="217.40" waitingTime="54.00" waitingCount="1" stopTime="0.00" timeLoss="65.40" rerouteNo="0" devices="tripinfo_27" vType="type4" speedFactor="0.95" vaporized=""/>
    <tripinfo id="28" depart="169.00" departLane="51o_0" departPos="5.10" departPosLat="0.00" departSpeed="0.00" departDelay="139.00" arrival="249.00" arrivalLane="54i_0" arrivalPos="10.00" arrivalPosLat="0.00" arrivalSpeed="12.20" duration="80.00" routeLength="217.40" waitingTime="53.00" waitingCount="1" stopTime="0.00" timeLoss="66.51" rerouteNo="0" devices="tripinfo_28" vType="type4" speedFactor="1.13" vaporized=""/>
    <tripinfo id="29" depart="172.00" departLane="51o_0" departPos="5.10" departPosLat="0.00" departSpeed="0.00" departDelay="142.00" arrival="252.00" arrivalLane="54i_0" arrivalPos="10.00" arrivalPosLat="0.00" arrivalSpeed="11.60" duration="80.00" routeLength="217.40" waitingTime="49.00" waitingCount="1" stopTime="0.00" timeLoss="63.03" rerouteNo="0" devices="tripinfo_29" vType="type4" speedFactor="0.93" vaporized=""/>
    <tripinfo id="31" depart="176.00" departLane="51o_0" departPos="7.20" departPosLat="0.00" departSpeed="0.00" departDelay="141.00" arrival="254.00" arrivalLane="54i_0" arrivalPos="10.00" arrivalPosLat="0.00" arrivalSpeed="12.68" duration="78.00" routeLength="215.30" waitingTime="46.00" waitingCount="1" stopTime="0.00" timeLoss="63.75" rerouteNo="0" devices="tripinfo_31" vType="type5" speedFactor="1.08" vaporized=""/>
    <tripinfo id="32" depart="180.00" departLane="51o_0" departPos="7.20" departPosLat="0.00" departSpeed="0.00" departDelay="145.00" arrival="256.00" arrivalLane="54i_0" arrivalPos="10.00" arrivalPosLat="0.00" arrivalSpeed="10.93" duration="76.00" routeLength="215.30" waitingTime="44.00" waitingCount="1" stopTime="0.00" timeLoss="60.80" rerouteNo="0" devices="tripinfo_32" vType="type5" speedFactor="1.00" vaporized=""/>
    <tripinfo id="33" depart="185.00" departLane="51o_0" departPos="7.20" departPosLat="0.00" departSpeed="0.00" departDelay="150.00" arrival="258.00" arrivalLane="54i_0" arrivalPos="10.00" arrivalPosLat="0.00" arrivalSpeed="11.49" duration="73.00" routeLength="215.30" waitingTime="40.00" waitingCount="1" stopTime="0.00" timeLoss="59.00" rerouteNo="0" devices="tripinfo_33" vType="type5" speedFactor="1.09" vaporized=""/>
    <tripinfo id="34" depart="189.00" departLane="51o_0" departPos="7.20" departPosLat="0.00" departSpeed="0.00" departDelay="154.00" arrival="261.00" arrivalLane="54i_0" arrivalPos="10.00" arrivalPosLat="0.00" arrivalSpeed="12.02" duration="72.00" routeLength="215.30" waitingTime="39.00" waitingCount="2" stopTime="0.00" timeLoss="56.64" rerouteNo="0" devices="tripinfo_34" vType="type5" speedFactor="1.00" vaporized=""/>
    <tripinfo id="35" depart="194.00" departLane="51o_0" departPos="7.20" departPosLat="0.00" departSpeed="0.00" departDelay="154.00" arrival="263.00" arrivalLane="54i_0" arrivalPos="10.00" arrivalPosLat="0.00" arrivalSpeed="12.17" duration="69.00" routeLength="215.30" waitingTime="36.00" waitingCount="1" stopTime="0.00" timeLoss="53.78" rerouteNo="0" devices="tripinfo_35" vType="type5" speedFactor="1.01" vaporized=""/>
    <tripinfo id="36" depart="198.00" departLane="51o_0" departPos="7.20" departPosLat="0.00" departSpeed="0.00" departDelay="158.00" arrival="265.00" arrivalLane="54i_0" arrivalPos="10.00" arrivalPosLat="0.00" arrivalSpeed="11.51" duration="67.00" routeLength="215.30" waitingTime="34.00" waitingCount="1" stopTime="0.00" timeLoss="51.73" rerouteNo="0" devices="tripinfo_36" vType="type5" speedFactor="0.99" vaporized=""/>
    <tripinfo id="190" depart="195.00" departLane="54o_0" departPos="5.10" departPosLat="0.00" departSpeed="0.00" departDelay="0.00" arrival="295.00" arrivalLane="51i_2" arrivalPos="10.00" arrivalPosLat="0.00" arrivalSpeed="10.25" duration="100.00" routeLength="233.37" waitingTime="59.00" waitingCount="2" stopTime="0.00" timeLoss="81.76" rerouteNo="0" devices="tripinfo_190" vType="type3" speedFactor="0.88" vaporized=""/>
    <tripinfo id="200" depart="205.00" departLane="54o_0" departPos="5.10" departPosLat="0.00" departSpeed="0.00" departDelay="0.00" arrival="297.00" arrivalLane="51i_2" arrivalPos="10.00" arrivalPosLat="0.70" arrivalSpeed="13.06" duration="92.00" routeLength="233.37" waitingTime="49.00" waitingCount="2" stopTime="0.00" timeLoss="77.08" rerouteNo="0" devices="tripinfo_200" vType="type4" speedFactor="1.09" vaporized=""/>
    <tripinfo id="210" depart="215.00" departLane="54o_0" departPos="7.20" departPosLat="0.00" departSpeed="0.00" departDelay="0.00" arrival="301.00" arrivalLane="51i_2" arrivalPos="10.00" arrivalPosLat="0.00" arrivalSpeed="11.87" duration="86.00" routeLength="231.27" waitingTime="46.00" waitingCount="1" stopTime="0.00" timeLoss="70.82" rerouteNo="0" devices="tripinfo_210" vType="type5" speedFactor="1.05" vaporized=""/>
    <tripinfo id="37" depart="202.00" departLane="51o_0" departPos="7.20" departPosLat="0.00" departSpeed="0.00" departDelay="162.00" arrival="303.00" arrivalLane="54i_0" arrivalPos="10.00" arrivalPosLat="0.00" arrivalSpeed="12.58" duration="101.00" routeLength="215.30" waitingTime="63.00" waitingCount="2" stopTime="0.00" timeLoss="87.27" rerouteNo="0" devices="tripinfo_37" vType="type5" speedFactor="1.09" vaporized=""/>
    <tripinfo id="170" depart="175.00" departLane="54o_0" departPos="1.70" departPosLat="0.00" departSpeed="0.00" departDelay="0.00" arrival="305.00" arrivalLane="51i_0" arrivalPos="10.00" arrivalPosLat="-1.27" arrivalSpeed="6.05" duration="130.00" routeLength="236.77" waitingTime="71.00" waitingCount="2" stopTime="0.00" timeLoss="90.84" rerouteNo="0" devices="tripinfo_170" vType="type1" speedFactor="1.11" vaporized=""/>
    <tripinfo id="38" depart="207.00" departLane="51o_0" departPos="7.20" departPosLat="0.00" departSpeed="0.00" departDelay="167.00" arrival="306.00" arrivalLane="54i_0" arrivalPos="10.00" arrivalPosLat="0.00" arrivalSpeed="12.31" duration="99.00" routeLength="215.30" waitingTime="61.00" waitingCount="2" stopTime="0.00" timeLoss="84.18" rerouteNo="0" devices="tripinfo_38" vType="type5" speedFactor="1.05" vaporized=""/>
    <tripinfo id="220" depart="225.00" departLane="54o_0" departPos="10.00" departPosLat="0.00" departSpeed="0.00" departDelay="0.00" arrival="337.00" arrivalLane="51i_2" arrivalPos="10.00" arrivalPosLat="0.00" arrivalSpeed="11.43" duration="112.00" routeLength="228.47" waitingTime="70.00" waitingCount="2" stopTime="0.00" timeLoss="95.44" rerouteNo="0" devices="tripinfo_220" vType="type6" speedFactor="1.00" vaporized=""/>
    <tripinfo id="240" depart="245.00" departLane="54o_0" departPos="2.30" departPosLat="0.00" departSpeed="0.00" departDelay="0.00" arrival="341.00" arrivalLane="51i_2" arrivalPos="10.00" arrivalPosLat="0.00" arrivalSpeed="12.21" duration="96.00" routeLength="236.17" waitingTime="54.00" waitingCount="3" stopTime="0.00" timeLoss="78.45" rerouteNo="0" devices="tripinfo_240" vType="type2" speedFactor="0.95" vaporized=""/>
    <tripinfo id="39" depart="247.00" departLane="51o_0" departPos="7.20" departPosLat="0.00" departSpeed="0.00" departDelay="207.00" arrival="343.00" arrivalLane="54i_0" arrivalPos="10.00" arrivalPosLat="0.00" arrivalSpeed="11.10" duration="96.00" routeLength="215.30" waitingTime="54.00" waitingCount="2" stopTime="0.00" timeLoss="80.36" rerouteNo="0" devices="tripinfo_39" vType="type5" speedFactor="0.95" vaporized=""/>
    <tripinfo id="300" depart="305.00" departLane="54o_0" departPos="2.30" departPosLat="0.00" departSpeed="0.00" departDelay="0.00" arrival="343.00" arrivalLane="51i_2" arrivalPos="10.00" arrivalPosLat="0.00" arrivalSpeed="10.89" duration="38.00" routeLength="236.17" waitingTime="9.00" waitingCount="1" stopTime="0.00" timeLoss="20.33" rerouteNo="0" devices="tripinfo_300" vType="type2" speedFactor="0.93" vaporized=""/>
    <tripinfo id="41" depart="254.00" departLane="51o_0" departPos="10.00" departPosLat="0.00" departSpeed="0.00" departDelay="209.00" arrival="345.00" arrivalLane="54i_0" arrivalPos="10.00" arrivalPosLat="0.00" arrivalSpeed="10.65" duration="91.00" routeLength="212.50" waitingTime="49.00" waitingCount="2" stopTime="0.00" timeLoss="76.10" rerouteNo="0" devices="tripinfo_41" vType="type6" speedFactor="1.00" vaporized=""/>
    <tripinfo id="250" depart="255.00" departLane="54o_0" departPos="5.10" departPosLat="0.00" departSpeed="0.00" departDelay="0.00" arrival="389.00" arrivalLane="51i_2" arrivalPos="10.00" arrivalPosLat="0.00" arrivalSpeed="12.24" duration="134.00" routeLength="233.37" waitingTime="90.00" waitingCount="3" stopTime="0.00" timeLoss="119.25" rerouteNo="0" devices="tripinfo_250" vType="type3" speedFactor="1.10" vaporized=""/>
    <tripinfo id="260" depart="265.00" departLane="54o_0" departPos="5.10" departPosLat="0.00" departSpeed="0.00" departDelay="0.00" arrival="393.00" arrivalLane="51i_2" arrivalPos="10.00" arrivalPosLat="0.00" arrivalSpeed="11.44" duration="128.00" routeLength="233.37" waitingTime="82.00" waitingCount="3" stopTime="0.00" timeLoss="111.08" rerouteNo="0" devices="tripinfo_260" vType="type4" speedFactor="1.00" vaporized=""/>
    <tripinfo id="270" depart="275.00" departLane="54o_0" departPos="7.20" departPosLat="0.00" departSpeed="0.00" departDelay="0.00" arrival="397.00" arrivalLane="51i_2" arrivalPos="10.00" arrivalPosLat="0.00" arrivalSpeed="12.30" duration="122.00" routeLength="231.27" waitingTime="71.00" waitingCount="3" stopTime="0.00" timeLoss="105.55" rerouteNo="0" devices="tripinfo_270" vType="type5" speedFactor="1.02" vaporized=""/>
    <tripinfo id="280" depart="285.00" departLane="54o_0" departPos="10.00" departPosLat="0.00" departSpeed="0.00" departDelay="0.00" arrival="399.00" arrivalLane="51i_2" arrivalPos="10.00" arrivalPosLat="0.00" arrivalSpeed="11.63" duration="114.00" routeLength="228.47" waitingTime="67.00" waitingCount="2" stopTime="0.00" timeLoss="97.75" rerouteNo="0" devices="tripinfo_280" vType="type6" speedFactor="1.00" vaporized=""/>
    <tripinfo id="230" depart="235.00" departLane="54o_0" departPos="1.70" departPosLat="0.00" departSpeed="0.00" departDelay="0.00" arrival="405.00" arrivalLane="51i_0" arrivalPos="10.00" arrivalPosLat="-1.27" arrivalSpeed="4.87" duration="170.00" routeLength="236.77" waitingTime="102.00" waitingCount="3" stopTime="0.00" timeLoss="122.37" rerouteNo="0" devices="tripinfo_230" vType="type1" speedFactor="0.90" vaporized=""/>
    <tripinfo id="310" depart="315.00" departLane="54o_0" departPos="5.10" departPosLat="0.00" departSpeed="0.00" departDelay="0.00" arrival="405.00" arrivalLane="51i_2" arrivalPos="10.00" arrivalPosLat="0.00" arrivalSpeed="10.32" duration="90.00" routeLength="233.37" waitingTime="43.00" waitingCount="2" stopTime="0.00" timeLoss="68.66" rerouteNo="0" devices="tripinfo_310" vType="type3" speedFactor="0.75" vaporized=""/>